#LAMMPS data file created by PyMu. 
9076 atoms

1 atom types

0 23.5675 xlo xhi
0 23.5675 ylo yhi
0 23.5675 zlo zhi

Atoms

1 1 1.04999 1 19.5097 5.37939 3.95694 0 0 0
2 1 1.04999 1 11.6618 8.19072 9.40558 0 0 0
3 1 1.04999 1 22.7418 22.4192 12.551 0 0 0
4 1 1.04999 1 11.3255 18.7054 12.9849 0 0 0
5 1 1.04998 1 13.5035 15.7218 0.918076 0 0 0
6 1 1.04996 1 22.4968 11.3275 8.38773 0 0 0
7 1 1.04996 1 2.8348 5.9219 2.77308 0 0 0
8 1 1.04995 1 11.638 8.77957 5.32828 0 0 0
9 1 1.04993 1 1.68729 16.25 5.19832 0 0 0
10 1 1.04992 1 20.1706 14.3026 21.9953 0 0 0
11 1 1.04991 1 19.7062 3.94733 20.4551 0 0 0
12 1 1.04991 1 6.87876 3.0264 17.1977 0 0 0
13 1 1.0499 1 23.0481 0.495635 14.2797 0 0 0
14 1 1.04989 1 23.1541 2.15357 10.5162 0 0 0
15 1 1.04987 1 6.3473 11.537 4.90198 0 0 0
16 1 1.04985 1 2.58041 8.3193 14.8378 0 0 0
17 1 1.04985 1 19.3622 11.8913 12.8357 0 0 0
18 1 1.04985 1 3.68036 5.03961 16.5651 0 0 0
19 1 1.04983 1 17.0838 10.7922 22.2081 0 0 0
20 1 1.04981 1 5.50708 20.9891 20.0717 0 0 0
21 1 1.04981 1 15.3194 17.887 4.56578 0 0 0
22 1 1.04979 1 4.97054 20.4362 9.43366 0 0 0
23 1 1.04978 1 19.5546 3.09865 12.3201 0 0 0
24 1 1.04977 1 11.3074 14.409 8.50362 0 0 0
25 1 1.04977 1 1.62805 12.9579 9.57309 0 0 0
26 1 1.04972 1 10.7464 1.01179 8.87627 0 0 0
27 1 1.04967 1 17.9414 13.8068 21.6806 0 0 0
28 1 1.04963 1 11.135 13.3024 2.59943 0 0 0
29 1 1.04963 1 21.7503 5.39788 10.7286 0 0 0
30 1 1.04963 1 9.67858 1.19707 3.55754 0 0 0
31 1 1.04962 1 16.0847 15.8009 1.56654 0 0 0
32 1 1.04962 1 14.684 1.65629 8.21055 0 0 0
33 1 1.04961 1 3.207 22.8208 6.87782 0 0 0
34 1 1.0496 1 6.08667 17.4323 15.492 0 0 0
35 1 1.0496 1 4.90443 2.32377 18.6589 0 0 0
36 1 1.04959 1 2.85105 1.04786 22.5648 0 0 0
37 1 1.04958 1 2.8559 0.293891 5.39993 0 0 0
38 1 1.04957 1 15.8508 5.18142 20.4582 0 0 0
39 1 1.04957 1 15.2487 18.2806 19.2555 0 0 0
40 1 1.04956 1 7.70809 20.1102 22.6733 0 0 0
41 1 1.04956 1 7.45685 23.0496 22.4367 0 0 0
42 1 1.04956 1 9.61009 12.051 7.60209 0 0 0
43 1 1.04954 1 12.9297 10.853 22.8596 0 0 0
44 1 1.04953 1 7.98829 9.11781 8.39325 0 0 0
45 1 1.04951 1 10.5405 15.7975 5.9376 0 0 0
46 1 1.04951 1 17.4941 16.1339 13.118 0 0 0
47 1 1.0495 1 0.905734 9.29233 3.71734 0 0 0
48 1 1.0495 1 3.97602 14.9687 2.78636 0 0 0
49 1 1.04949 1 9.60625 11.9849 23.5569 0 0 0
50 1 1.04949 1 16.8955 15.4606 3.02973 0 0 0
51 1 1.04949 1 13.2874 12.1563 14.0539 0 0 0
52 1 1.04948 1 4.30347 6.32943 9.60923 0 0 0
53 1 1.04947 1 8.70314 12.2623 6.46352 0 0 0
54 1 1.04947 1 22.1345 11.8007 2.44454 0 0 0
55 1 1.04946 1 17.0656 13.2418 8.26265 0 0 0
56 1 1.04946 1 2.52162 7.00419 7.15049 0 0 0
57 1 1.04945 1 0.440891 5.67775 7.20837 0 0 0
58 1 1.04945 1 3.22056 6.75954 13.3522 0 0 0
59 1 1.04945 1 8.14277 16.9675 12.2001 0 0 0
60 1 1.04944 1 0.438671 21.8342 23.1819 0 0 0
61 1 1.04941 1 6.32505 14.0957 20.9264 0 0 0
62 1 1.04941 1 3.18417 14.0175 14.3907 0 0 0
63 1 1.04941 1 13.6864 11.3724 18.561 0 0 0
64 1 1.04941 1 15.985 12.7281 16.2514 0 0 0
65 1 1.0494 1 17.887 10.4021 2.98936 0 0 0
66 1 1.04939 1 6.74503 20.5299 0.472018 0 0 0
67 1 1.04938 1 15.025 10.7071 18.7324 0 0 0
68 1 1.04936 1 5.39447 18.6695 2.5205 0 0 0
69 1 1.04936 1 15.2101 2.71441 4.31202 0 0 0
70 1 1.04933 1 1.81226 14.1907 19.041 0 0 0
71 1 1.04932 1 9.69646 17.4112 6.28022 0 0 0
72 1 1.04932 1 11.2967 2.73096 19.0546 0 0 0
73 1 1.04931 1 2.97726 11.2471 13.6515 0 0 0
74 1 1.04931 1 0.927709 1.1674 7.17192 0 0 0
75 1 1.04928 1 16.0513 11.8205 16.9728 0 0 0
76 1 1.04927 1 14.5286 17.8945 13.6215 0 0 0
77 1 1.04927 1 19.8936 19.0083 7.94042 0 0 0
78 1 1.04926 1 17.8472 20.9064 22.2732 0 0 0
79 1 1.04925 1 19.78 5.04501 16.7654 0 0 0
80 1 1.04924 1 9.25312 9.19224 5.77212 0 0 0
81 1 1.04923 1 6.84178 12.0354 20.3161 0 0 0
82 1 1.04922 1 4.85001 1.22608 21.6744 0 0 0
83 1 1.04918 1 14.9793 20.9876 14.285 0 0 0
84 1 1.04915 1 19.4448 12.1767 22.5506 0 0 0
85 1 1.04914 1 2.17152 11.778 20.0849 0 0 0
86 1 1.04912 1 16.159 23.2456 18.5117 0 0 0
87 1 1.0491 1 22.352 20.7919 8.42595 0 0 0
88 1 1.04909 1 7.927 13.8236 16.5588 0 0 0
89 1 1.04904 1 17.5505 18.534 9.58882 0 0 0
90 1 1.04903 1 0.797428 22.2969 1.30028 0 0 0
91 1 1.04903 1 2.59 8.19373 7.62333 0 0 0
92 1 1.04902 1 12.5385 6.33573 6.6354 0 0 0
93 1 1.04901 1 10.6339 8.15332 6.22787 0 0 0
94 1 1.049 1 6.93846 17.5077 22.2284 0 0 0
95 1 1.04899 1 4.62669 21.9426 20.007 0 0 0
96 1 1.04897 1 11.1921 9.76187 8.95039 0 0 0
97 1 1.04897 1 3.58429 8.8856 16.8868 0 0 0
98 1 1.04895 1 16.386 8.88656 22.2222 0 0 0
99 1 1.04894 1 13.4155 9.25677 12.9559 0 0 0
100 1 1.04894 1 7.17428 3.60512 13.0101 0 0 0
101 1 1.04892 1 16.4047 18.3471 14.0329 0 0 0
102 1 1.04892 1 1.52554 4.17431 4.30798 0 0 0
103 1 1.04892 1 14.9953 22.6058 17.2057 0 0 0
104 1 1.0489 1 12.8284 7.51033 11.6223 0 0 0
105 1 1.04888 1 14.4201 22.0932 12.8272 0 0 0
106 1 1.04887 1 20.0181 0.730641 13.6582 0 0 0
107 1 1.04886 1 15.6625 13.1568 20.4898 0 0 0
108 1 1.04885 1 18.193 21.1998 3.74926 0 0 0
109 1 1.04884 1 10.7293 11.6856 8.21687 0 0 0
110 1 1.04883 1 16.708 17.9584 4.50317 0 0 0
111 1 1.04882 1 22.4039 10.6646 20.8444 0 0 0
112 1 1.04882 1 16.3549 17.6525 9.09069 0 0 0
113 1 1.04882 1 5.36267 14.5358 6.78062 0 0 0
114 1 1.04881 1 15.1262 2.80186 15.3303 0 0 0
115 1 1.04881 1 3.77324 13.1485 2.22958 0 0 0
116 1 1.04881 1 3.48149 11.7204 0.903133 0 0 0
117 1 1.0488 1 1.8501 11.1822 21.688 0 0 0
118 1 1.0488 1 6.43572 18.0215 21.0968 0 0 0
119 1 1.04879 1 12.503 21.8 18.3501 0 0 0
120 1 1.04877 1 23.3464 10.2726 11.896 0 0 0
121 1 1.04877 1 19.3699 9.50256 8.00711 0 0 0
122 1 1.04877 1 2.25219 12.9965 14.3469 0 0 0
123 1 1.04876 1 4.68933 11.1836 23.4883 0 0 0
124 1 1.04875 1 22.2619 0.78207 9.45505 0 0 0
125 1 1.04875 1 0.108621 8.58774 0.33823 0 0 0
126 1 1.04873 1 5.84059 1.89465 7.4424 0 0 0
127 1 1.04873 1 17.8807 16.5464 16.7239 0 0 0
128 1 1.04873 1 2.27064 18.4867 4.96265 0 0 0
129 1 1.04872 1 14.4177 8.89472 14.4544 0 0 0
130 1 1.04872 1 3.57028 4.01707 18.2071 0 0 0
131 1 1.04871 1 6.8326 17.9007 6.38384 0 0 0
132 1 1.04869 1 3.3599 18.3051 0.795806 0 0 0
133 1 1.04868 1 3.44167 6.30891 15.9999 0 0 0
134 1 1.04868 1 10.4802 21.9427 8.12765 0 0 0
135 1 1.04867 1 9.80202 6.71455 13.0703 0 0 0
136 1 1.04866 1 14.7021 3.53603 11.7473 0 0 0
137 1 1.04866 1 18.1782 13.6773 1.6409 0 0 0
138 1 1.04866 1 23.3777 2.83758 4.79681 0 0 0
139 1 1.04863 1 16.2063 3.24732 20.2681 0 0 0
140 1 1.04862 1 4.9493 10.7653 8.62515 0 0 0
141 1 1.04861 1 22.1901 18.1462 2.45355 0 0 0
142 1 1.04856 1 8.47455 12.6272 4.99694 0 0 0
143 1 1.04856 1 2.0643 21.9597 8.82881 0 0 0
144 1 1.04855 1 14.1818 14.7235 0.394745 0 0 0
145 1 1.04855 1 13.0646 4.72047 1.85172 0 0 0
146 1 1.04854 1 8.3514 15.0174 5.57672 0 0 0
147 1 1.04854 1 12.9733 19.6328 4.58348 0 0 0
148 1 1.04853 1 13.7164 2.87028 22.1569 0 0 0
149 1 1.04853 1 23.1232 7.17333 14.6049 0 0 0
150 1 1.04852 1 15.6131 14.7944 14.8637 0 0 0
151 1 1.04852 1 13.4014 18.5399 4.34424 0 0 0
152 1 1.0485 1 21.3802 7.11863 5.44139 0 0 0
153 1 1.0485 1 19.0183 19.8824 6.30762 0 0 0
154 1 1.04847 1 19.708 10.1184 16.016 0 0 0
155 1 1.04846 1 15.7065 12.0176 5.09527 0 0 0
156 1 1.04844 1 1.76904 16.2936 11.5848 0 0 0
157 1 1.04842 1 15.118 4.7575 23.2076 0 0 0
158 1 1.04838 1 11.3029 18.7889 4.73151 0 0 0
159 1 1.04838 1 20.0772 12.3277 16.0952 0 0 0
160 1 1.04838 1 16.4619 16.6583 14.8419 0 0 0
161 1 1.04836 1 15.5396 18.1294 10.8876 0 0 0
162 1 1.04835 1 10.6621 14.7543 6.48356 0 0 0
163 1 1.04834 1 17.4987 11.4906 7.73459 0 0 0
164 1 1.04834 1 14.167 11.3203 21.544 0 0 0
165 1 1.04834 1 16.2325 8.73803 15.2466 0 0 0
166 1 1.04833 1 13.9689 16.6275 4.02019 0 0 0
167 1 1.04832 1 22.7703 18.485 13.8144 0 0 0
168 1 1.0483 1 14.8632 5.97139 17.8221 0 0 0
169 1 1.04829 1 6.68207 9.86493 22.6657 0 0 0
170 1 1.04828 1 7.34367 7.89696 16.4218 0 0 0
171 1 1.04828 1 10.7837 1.39967 23.5463 0 0 0
172 1 1.04827 1 3.32641 7.05384 22.4048 0 0 0
173 1 1.04827 1 9.01101 7.55683 22.6068 0 0 0
174 1 1.04827 1 12.598 15.2993 7.48375 0 0 0
175 1 1.04826 1 18.3011 16.4333 9.17795 0 0 0
176 1 1.04826 1 16.2414 6.97952 17.8892 0 0 0
177 1 1.04823 1 20.4785 12.4012 18.8528 0 0 0
178 1 1.04822 1 19.3732 19.9763 0.985428 0 0 0
179 1 1.04821 1 6.40809 3.45095 9.9701 0 0 0
180 1 1.0482 1 15.7265 0.736587 21.4369 0 0 0
181 1 1.0482 1 0.445538 9.18222 16.5481 0 0 0
182 1 1.04818 1 18.7428 8.78012 6.69166 0 0 0
183 1 1.04817 1 12.4191 5.30459 11.9466 0 0 0
184 1 1.04816 1 21.3924 19.2763 4.687 0 0 0
185 1 1.04816 1 10.5195 22.8301 13.5813 0 0 0
186 1 1.04815 1 10.3478 3.46824 17.8353 0 0 0
187 1 1.04814 1 21.2895 20.0848 14.025 0 0 0
188 1 1.04813 1 19.1396 17.384 7.47816 0 0 0
189 1 1.04811 1 22.3178 4.23794 0.721603 0 0 0
190 1 1.0481 1 9.48502 12.0263 2.27472 0 0 0
191 1 1.04809 1 8.63441 11.3477 17.3239 0 0 0
192 1 1.04809 1 13.1121 4.01809 15.3572 0 0 0
193 1 1.04809 1 5.57942 15.5139 19.2933 0 0 0
194 1 1.04807 1 2.41283 18.2719 7.21093 0 0 0
195 1 1.04806 1 4.13785 20.4919 19.5358 0 0 0
196 1 1.04805 1 14.2265 21.3661 10.3254 0 0 0
197 1 1.04805 1 11.2925 1.28169 13.0479 0 0 0
198 1 1.04805 1 20.8112 14.9359 8.81988 0 0 0
199 1 1.04804 1 0.0420323 16.4984 13.9881 0 0 0
200 1 1.04803 1 3.3381 5.73893 1.13096 0 0 0
201 1 1.04802 1 9.14663 2.75702 0.303794 0 0 0
202 1 1.04802 1 6.08545 21.697 9.32535 0 0 0
203 1 1.048 1 7.54581 17.3833 19.4977 0 0 0
204 1 1.04797 1 8.64479 20.2799 1.81754 0 0 0
205 1 1.04797 1 22.1949 0.584057 13.1354 0 0 0
206 1 1.04796 1 14.303 11.2904 14.9216 0 0 0
207 1 1.04796 1 13.8673 18.0002 16.8289 0 0 0
208 1 1.04796 1 7.62315 10.2414 6.2703 0 0 0
209 1 1.04795 1 15.7784 14.5949 16.4733 0 0 0
210 1 1.04795 1 9.56878 6.44079 4.87256 0 0 0
211 1 1.04794 1 10.0732 20.6194 2.44946 0 0 0
212 1 1.04794 1 3.09758 2.39945 8.4904 0 0 0
213 1 1.04793 1 20.103 18.2256 20.4933 0 0 0
214 1 1.04792 1 4.09525 9.04486 3.43515 0 0 0
215 1 1.04792 1 8.12879 13.6908 5.01223 0 0 0
216 1 1.04791 1 5.39653 22.6155 4.96445 0 0 0
217 1 1.0479 1 10.7112 22.4451 9.04565 0 0 0
218 1 1.04788 1 19.0978 18.504 15.1475 0 0 0
219 1 1.04788 1 12.8753 10.007 21.4222 0 0 0
220 1 1.04786 1 5.75992 2.43239 17.4662 0 0 0
221 1 1.04784 1 5.42648 6.94835 9.22505 0 0 0
222 1 1.04784 1 12.6946 20.8991 7.30739 0 0 0
223 1 1.04783 1 0.996159 13.4858 22.1394 0 0 0
224 1 1.04782 1 17.1371 19.2542 7.90422 0 0 0
225 1 1.04781 1 17.316 5.53997 17.5155 0 0 0
226 1 1.04779 1 11.4802 11.4658 2.03918 0 0 0
227 1 1.04777 1 1.6218 6.4645 22.2579 0 0 0
228 1 1.04776 1 22.5948 2.45706 0.576365 0 0 0
229 1 1.04776 1 18.7603 12.4389 14.5249 0 0 0
230 1 1.04775 1 21.6431 13.9719 11.6036 0 0 0
231 1 1.04774 1 11.4771 18.5031 3.15793 0 0 0
232 1 1.04774 1 11.4996 6.57204 10.6273 0 0 0
233 1 1.04773 1 15.3659 1.6011 20.6908 0 0 0
234 1 1.04773 1 2.09496 0.00141878 2.91117 0 0 0
235 1 1.04772 1 18.5273 20.0883 19.318 0 0 0
236 1 1.04772 1 13.6328 14.7837 16.1191 0 0 0
237 1 1.04771 1 21.8413 20.8464 12.6772 0 0 0
238 1 1.04771 1 21.5244 10.4801 10.0918 0 0 0
239 1 1.04771 1 8.05757 2.21187 10.1801 0 0 0
240 1 1.04769 1 22.1938 12.6618 5.14865 0 0 0
241 1 1.04769 1 17.0298 20.984 18.6382 0 0 0
242 1 1.04768 1 12.4713 23.2133 7.12543 0 0 0
243 1 1.04767 1 3.92634 0.732313 12.9913 0 0 0
244 1 1.04766 1 10.3264 11.6603 20.5419 0 0 0
245 1 1.04765 1 8.67142 3.69654 23.2729 0 0 0
246 1 1.04763 1 5.00958 0.685587 11.6143 0 0 0
247 1 1.04763 1 1.12783 8.45694 15.0055 0 0 0
248 1 1.04763 1 7.88329 3.96821 19.5621 0 0 0
249 1 1.04762 1 12.9335 22.6903 11.7854 0 0 0
250 1 1.04761 1 3.28103 23.3486 10.7697 0 0 0
251 1 1.04761 1 19.4839 13.4426 1.21702 0 0 0
252 1 1.04759 1 23.0462 19.2699 1.67385 0 0 0
253 1 1.04759 1 9.19066 16.7166 8.91148 0 0 0
254 1 1.04758 1 7.94899 16.8929 17.5032 0 0 0
255 1 1.04758 1 19.5704 14.8331 4.92778 0 0 0
256 1 1.04757 1 15.9586 2.08297 16.8119 0 0 0
257 1 1.04757 1 12.8334 16.8085 12.174 0 0 0
258 1 1.04757 1 18.0787 4.84278 13.8891 0 0 0
259 1 1.04756 1 0.422176 15.4263 14.0144 0 0 0
260 1 1.04753 1 5.94717 1.55908 16.8949 0 0 0
261 1 1.04752 1 13.1359 7.50071 22.8074 0 0 0
262 1 1.04752 1 9.36215 0.196721 12.0036 0 0 0
263 1 1.04751 1 23.4613 11.4619 1.52421 0 0 0
264 1 1.04751 1 17.2943 0.273682 20.2183 0 0 0
265 1 1.0475 1 0.858108 21.3193 16.3159 0 0 0
266 1 1.04749 1 18.9472 12.0562 9.64047 0 0 0
267 1 1.04749 1 0.0334733 1.12543 17.6632 0 0 0
268 1 1.04748 1 23.1826 4.21044 5.33028 0 0 0
269 1 1.04747 1 0.19399 13.3002 2.87085 0 0 0
270 1 1.04747 1 0.248772 3.93318 20.6277 0 0 0
271 1 1.04745 1 5.44078 10.1419 9.54175 0 0 0
272 1 1.04744 1 7.82594 21.5767 7.69668 0 0 0
273 1 1.04743 1 14.4707 10.4559 4.38434 0 0 0
274 1 1.04742 1 11.6256 13.1661 5.30756 0 0 0
275 1 1.0474 1 20.7341 22.7222 9.93548 0 0 0
276 1 1.0474 1 14.0654 13.4453 22.2893 0 0 0
277 1 1.04738 1 6.44236 5.61616 7.15977 0 0 0
278 1 1.04737 1 18.2777 15.7648 21.891 0 0 0
279 1 1.04736 1 8.6197 8.14796 3.96978 0 0 0
280 1 1.04736 1 8.95334 21.6626 15.7768 0 0 0
281 1 1.04735 1 16.5722 8.78681 20.3707 0 0 0
282 1 1.04734 1 10.5168 14.8297 22.4058 0 0 0
283 1 1.04733 1 17.2778 21.7962 6.81939 0 0 0
284 1 1.04733 1 2.99251 16.7971 18.9974 0 0 0
285 1 1.04732 1 10.124 6.35156 16.0149 0 0 0
286 1 1.04732 1 13.7988 21.1926 3.50852 0 0 0
287 1 1.0473 1 1.90571 19.3889 15.3616 0 0 0
288 1 1.04729 1 0.47483 0.273053 19.9032 0 0 0
289 1 1.04727 1 18.9474 22.1042 9.07905 0 0 0
290 1 1.04725 1 6.61615 2.43423 14.5865 0 0 0
291 1 1.04725 1 4.77624 21.3379 15.3486 0 0 0
292 1 1.04722 1 19.4683 13.5925 3.75455 0 0 0
293 1 1.04719 1 8.39605 21.1138 12.6452 0 0 0
294 1 1.04717 1 15.6532 19.3338 13.1063 0 0 0
295 1 1.04713 1 9.86739 3.4559 21.2213 0 0 0
296 1 1.04713 1 8.20647 1.95792 7.91878 0 0 0
297 1 1.04712 1 13.2441 12.6962 10.0512 0 0 0
298 1 1.04709 1 1.24814 3.70736 17.0234 0 0 0
299 1 1.04709 1 19.8093 8.55394 10.8384 0 0 0
300 1 1.04708 1 20.2352 2.40427 0.757046 0 0 0
301 1 1.04705 1 22.1313 14.606 21.5309 0 0 0
302 1 1.04703 1 14.2835 14.1181 7.12602 0 0 0
303 1 1.04702 1 7.16521 12.441 9.63485 0 0 0
304 1 1.04699 1 16.5459 10.5902 1.58583 0 0 0
305 1 1.04699 1 18.8995 8.60863 18.7541 0 0 0
306 1 1.04697 1 20.8346 20.0702 20.7527 0 0 0
307 1 1.04696 1 10.1246 5.28638 21.9987 0 0 0
308 1 1.04695 1 18.9529 8.53491 16.8807 0 0 0
309 1 1.04695 1 17.2594 4.50194 6.71375 0 0 0
310 1 1.04695 1 14.3057 22.3013 23.0041 0 0 0
311 1 1.04694 1 22.7585 19.7734 19.4395 0 0 0
312 1 1.04694 1 12.1584 4.34311 3.68906 0 0 0
313 1 1.04694 1 7.66998 2.68276 22.6751 0 0 0
314 1 1.04694 1 19.9316 2.36331 2.26187 0 0 0
315 1 1.04694 1 17.1753 21.5437 8.57787 0 0 0
316 1 1.04693 1 12.5312 20.8343 12.7553 0 0 0
317 1 1.04693 1 2.12561 6.2881 19.451 0 0 0
318 1 1.04692 1 22.8032 9.50731 2.26859 0 0 0
319 1 1.04691 1 11.5751 22.07 0.794459 0 0 0
320 1 1.04691 1 9.9156 17.9976 3.93174 0 0 0
321 1 1.04689 1 12.2845 5.23696 19.7597 0 0 0
322 1 1.04687 1 9.94304 17.771 8.06907 0 0 0
323 1 1.04687 1 4.58901 23.1143 2.61888 0 0 0
324 1 1.04687 1 18.3991 8.98151 2.00432 0 0 0
325 1 1.04687 1 19.7633 0.386523 16.5794 0 0 0
326 1 1.04686 1 2.88025 4.66272 18.719 0 0 0
327 1 1.04684 1 22.6239 5.53189 2.05211 0 0 0
328 1 1.04682 1 4.85242 6.53762 22.2548 0 0 0
329 1 1.0468 1 16.0673 1.8008 11.415 0 0 0
330 1 1.0468 1 17.0113 3.08462 3.18598 0 0 0
331 1 1.0468 1 16.4699 1.23072 15.072 0 0 0
332 1 1.04679 1 10.7132 5.02068 11.9365 0 0 0
333 1 1.04679 1 7.59103 17.1328 6.45655 0 0 0
334 1 1.04679 1 16.1621 19.6779 3.81931 0 0 0
335 1 1.04679 1 13.049 1.47423 5.26097 0 0 0
336 1 1.04678 1 18.1261 15.7358 11.9788 0 0 0
337 1 1.04678 1 5.42528 10.8746 22.3484 0 0 0
338 1 1.04677 1 18.3124 23.0231 5.30077 0 0 0
339 1 1.04676 1 0.884859 9.9281 19.0617 0 0 0
340 1 1.04674 1 1.35295 2.21896 9.88467 0 0 0
341 1 1.04673 1 13.3588 7.85403 3.45578 0 0 0
342 1 1.04672 1 9.82266 23.5239 9.792 0 0 0
343 1 1.04672 1 1.22087 17.3448 19.5742 0 0 0
344 1 1.0467 1 7.65508 22.7003 3.89866 0 0 0
345 1 1.04669 1 1.95186 22.1704 13.8715 0 0 0
346 1 1.04667 1 8.19803 16.8532 2.83573 0 0 0
347 1 1.04667 1 10.3853 2.1659 17.568 0 0 0
348 1 1.04666 1 18.1027 0.327923 6.24502 0 0 0
349 1 1.04665 1 8.64606 21.0334 10.1794 0 0 0
350 1 1.04664 1 1.90877 7.48408 15.253 0 0 0
351 1 1.04664 1 18.4409 14.8432 12.8153 0 0 0
352 1 1.04663 1 10.7316 13.9792 12.5352 0 0 0
353 1 1.04661 1 12.9065 17.8039 20.6913 0 0 0
354 1 1.0466 1 16.0437 5.2604 9.9116 0 0 0
355 1 1.04659 1 12.818 18.3364 5.46129 0 0 0
356 1 1.04659 1 3.64407 20.1681 21.6738 0 0 0
357 1 1.04659 1 16.5052 15.2908 10.2421 0 0 0
358 1 1.04656 1 20.4529 14.0284 19.2559 0 0 0
359 1 1.04656 1 6.98568 15.0562 16.6107 0 0 0
360 1 1.04655 1 19.775 10.6143 2.02275 0 0 0
361 1 1.04654 1 12.9229 13.874 7.95213 0 0 0
362 1 1.04653 1 6.23946 8.0583 20.6338 0 0 0
363 1 1.04653 1 18.3114 11.8635 3.44036 0 0 0
364 1 1.04653 1 20.4198 7.9449 8.87084 0 0 0
365 1 1.0465 1 7.26286 9.35245 15.7735 0 0 0
366 1 1.0465 1 19.1684 11.9303 15.672 0 0 0
367 1 1.04649 1 3.62713 21.9607 4.32792 0 0 0
368 1 1.04649 1 14.705 23.3106 21.3919 0 0 0
369 1 1.04645 1 23.0763 13.8389 14.5144 0 0 0
370 1 1.04645 1 3.3007 21.2669 13.6944 0 0 0
371 1 1.04644 1 4.79651 1.70928 4.58463 0 0 0
372 1 1.04641 1 18.2738 11.1893 1.14668 0 0 0
373 1 1.04638 1 6.05599 17.1487 0.0193333 0 0 0
374 1 1.04635 1 3.49277 17.5477 22.0455 0 0 0
375 1 1.04633 1 6.8773 20.113 6.66948 0 0 0
376 1 1.04631 1 19.944 16.8835 13.1036 0 0 0
377 1 1.04631 1 22.4416 22.3177 16.3991 0 0 0
378 1 1.0463 1 8.27331 22.7662 0.689494 0 0 0
379 1 1.0463 1 22.4709 10.6225 2.70705 0 0 0
380 1 1.04629 1 8.8745 4.84836 19.5755 0 0 0
381 1 1.04629 1 13.6303 1.81855 12.9431 0 0 0
382 1 1.04629 1 1.90642 19.895 10.2154 0 0 0
383 1 1.04628 1 1.84016 15.0293 1.47342 0 0 0
384 1 1.04628 1 11.9676 14.5335 0.798644 0 0 0
385 1 1.04628 1 18.7698 11.9256 0.409774 0 0 0
386 1 1.04628 1 2.23683 19.7739 13.3588 0 0 0
387 1 1.04627 1 12.3423 20.9864 10.7367 0 0 0
388 1 1.04626 1 7.10226 4.62177 14.8681 0 0 0
389 1 1.04624 1 7.25273 9.45027 18.9572 0 0 0
390 1 1.04624 1 14.9505 17.5126 17.1853 0 0 0
391 1 1.04624 1 20.7051 5.21324 5.79199 0 0 0
392 1 1.04621 1 21.6591 12.7101 11.3933 0 0 0
393 1 1.04621 1 19.5289 14.7696 9.06239 0 0 0
394 1 1.04619 1 0.897324 2.49563 14.5079 0 0 0
395 1 1.04618 1 8.2149 0.635864 1.42611 0 0 0
396 1 1.04616 1 16.7724 13.3824 23.3117 0 0 0
397 1 1.04616 1 17.84 17.8824 3.42642 0 0 0
398 1 1.04615 1 11.722 16.6019 0.784771 0 0 0
399 1 1.04613 1 21.6872 19.0282 14.6723 0 0 0
400 1 1.04612 1 21.8587 21.151 5.57582 0 0 0
401 1 1.04611 1 15.6836 15.1378 18.4462 0 0 0
402 1 1.04609 1 15.0932 9.67445 14.659 0 0 0
403 1 1.04608 1 7.23307 4.08648 8.07115 0 0 0
404 1 1.04607 1 9.85913 22.4865 11.714 0 0 0
405 1 1.04607 1 9.68955 12.8527 12.4829 0 0 0
406 1 1.04605 1 18.0128 21.8621 19.6247 0 0 0
407 1 1.04603 1 11.0864 17.546 12.4062 0 0 0
408 1 1.04603 1 20.486 23.0701 15.6362 0 0 0
409 1 1.04602 1 19.5837 0.102541 14.8235 0 0 0
410 1 1.04601 1 20.3254 16.3366 3.85117 0 0 0
411 1 1.04601 1 22.1442 4.09145 18.6072 0 0 0
412 1 1.04601 1 6.80874 7.07011 8.93503 0 0 0
413 1 1.04599 1 13.3607 21.1565 16.5459 0 0 0
414 1 1.04599 1 21.1682 21.9937 7.75983 0 0 0
415 1 1.04595 1 2.98921 19.0852 10.1984 0 0 0
416 1 1.04595 1 11.4592 20.8754 2.39956 0 0 0
417 1 1.04594 1 1.20683 7.09328 5.15966 0 0 0
418 1 1.04593 1 14.2005 14.8586 4.70278 0 0 0
419 1 1.04593 1 17.6216 2.76032 4.93567 0 0 0
420 1 1.04592 1 5.50493 2.69631 0.92516 0 0 0
421 1 1.04591 1 20.7811 5.97097 10.2831 0 0 0
422 1 1.0459 1 17.5837 5.10828 15.7119 0 0 0
423 1 1.0459 1 16.1346 17.8963 20.9133 0 0 0
424 1 1.0459 1 1.31345 13.2442 1.73677 0 0 0
425 1 1.0459 1 12.0185 5.13333 7.40404 0 0 0
426 1 1.04588 1 5.7108 2.51973 5.26882 0 0 0
427 1 1.04588 1 22.7483 6.02887 3.41192 0 0 0
428 1 1.04588 1 10.3568 20.6985 10.5879 0 0 0
429 1 1.04585 1 4.95375 15.8496 2.14651 0 0 0
430 1 1.04584 1 17.3531 0.989961 8.80217 0 0 0
431 1 1.04584 1 11.8473 0.382486 6.27682 0 0 0
432 1 1.04584 1 20.7756 1.8168 7.21195 0 0 0
433 1 1.0458 1 17.939 10.1733 7.17536 0 0 0
434 1 1.04578 1 21.4895 8.70065 5.49583 0 0 0
435 1 1.04578 1 1.50791 21.8725 0.160335 0 0 0
436 1 1.04577 1 0.261151 23.4285 12.1918 0 0 0
437 1 1.04576 1 6.83323 18.8172 11.2031 0 0 0
438 1 1.04575 1 7.57657 11.9347 13.3164 0 0 0
439 1 1.04575 1 20.8562 2.64711 23.1137 0 0 0
440 1 1.04572 1 6.17385 4.44737 12.9021 0 0 0
441 1 1.04571 1 11.5575 21.9762 3.52799 0 0 0
442 1 1.04569 1 1.64642 12.2157 1.8011 0 0 0
443 1 1.04568 1 20.7832 20.356 11.3642 0 0 0
444 1 1.04568 1 17.1359 12.3389 18.8246 0 0 0
445 1 1.04567 1 3.24768 13.2074 17.5153 0 0 0
446 1 1.04566 1 16.1258 6.94648 3.89401 0 0 0
447 1 1.04565 1 16.3575 4.47712 7.98218 0 0 0
448 1 1.04564 1 15.9355 12.5191 13.5392 0 0 0
449 1 1.04564 1 19.8962 0.939404 11.9943 0 0 0
450 1 1.04562 1 4.83578 4.73137 13.1549 0 0 0
451 1 1.04561 1 18.4175 6.45227 4.39047 0 0 0
452 1 1.04561 1 12.3881 8.33747 0.967384 0 0 0
453 1 1.04557 1 17.9263 0.176819 9.29828 0 0 0
454 1 1.04556 1 6.57821 5.67754 8.93082 0 0 0
455 1 1.04555 1 0.254138 14.0978 11.1831 0 0 0
456 1 1.04554 1 6.85494 12.865 6.88638 0 0 0
457 1 1.04553 1 14.5413 12.6961 4.21472 0 0 0
458 1 1.04553 1 23.3901 5.63039 22.567 0 0 0
459 1 1.0455 1 11.207 20.3936 8.62622 0 0 0
460 1 1.0455 1 21.1645 13.8835 8.17867 0 0 0
461 1 1.0455 1 13.5592 3.45602 3.48119 0 0 0
462 1 1.04549 1 3.03101 13.846 5.19794 0 0 0
463 1 1.04549 1 9.34801 7.64155 20.5455 0 0 0
464 1 1.04548 1 7.30242 15.9114 17.9949 0 0 0
465 1 1.04547 1 1.89374 3.00943 0.530943 0 0 0
466 1 1.04543 1 5.00991 1.57984 2.60434 0 0 0
467 1 1.04542 1 14.6477 2.65246 18.3091 0 0 0
468 1 1.04542 1 1.74123 1.96222 11.333 0 0 0
469 1 1.04542 1 3.39953 10.4823 1.29885 0 0 0
470 1 1.04541 1 21.6288 11.5092 3.97159 0 0 0
471 1 1.0454 1 0.351513 3.41119 9.34133 0 0 0
472 1 1.0454 1 3.46194 9.2526 20.3014 0 0 0
473 1 1.0454 1 6.58319 4.47593 0.389758 0 0 0
474 1 1.04539 1 13.2143 0.716091 12.9525 0 0 0
475 1 1.04538 1 10.3279 1.36713 21.723 0 0 0
476 1 1.04536 1 4.94661 7.56985 4.19653 0 0 0
477 1 1.04532 1 15.1282 20.6653 20.3716 0 0 0
478 1 1.04531 1 11.6117 14.9845 16.2615 0 0 0
479 1 1.04531 1 19.8033 12.4775 14.0385 0 0 0
480 1 1.0453 1 13.1523 12.8304 19.155 0 0 0
481 1 1.0453 1 10.0539 8.40692 13.9284 0 0 0
482 1 1.0453 1 0.385357 10.5248 0.895108 0 0 0
483 1 1.04529 1 19.6105 10.3471 20.5956 0 0 0
484 1 1.04529 1 23.2532 7.30285 18.566 0 0 0
485 1 1.04527 1 9.14651 7.23229 9.14254 0 0 0
486 1 1.04526 1 15.0762 7.96345 2.28791 0 0 0
487 1 1.04526 1 0.754811 18.9342 16.1624 0 0 0
488 1 1.04524 1 9.00507 17.053 3.75141 0 0 0
489 1 1.04523 1 5.70985 8.5583 3.66634 0 0 0
490 1 1.04522 1 2.57411 9.07695 16.0787 0 0 0
491 1 1.04522 1 18.4523 21.286 13.18 0 0 0
492 1 1.04522 1 23.4712 22.9185 17.9603 0 0 0
493 1 1.04522 1 16.734 1.65807 13.734 0 0 0
494 1 1.04521 1 12.183 12.5121 3.25274 0 0 0
495 1 1.04521 1 15.6311 10.8327 17.4045 0 0 0
496 1 1.0452 1 4.82545 14.2544 12.9768 0 0 0
497 1 1.04519 1 10.2578 0.935278 20.4228 0 0 0
498 1 1.04519 1 2.90246 15.4561 13.8351 0 0 0
499 1 1.04518 1 18.5428 15.7037 18.8497 0 0 0
500 1 1.04517 1 19.3631 20.988 15.7777 0 0 0
501 1 1.04516 1 20.9447 12.087 10.0009 0 0 0
502 1 1.04516 1 7.08868 7.66149 15.428 0 0 0
503 1 1.04514 1 10.1506 12.1401 16.3536 0 0 0
504 1 1.04512 1 4.79565 6.45888 6.27583 0 0 0
505 1 1.04511 1 5.92678 1.45171 21.8739 0 0 0
506 1 1.04509 1 8.00476 16.8226 0.210101 0 0 0
507 1 1.04509 1 17.0858 3.2712 16.6293 0 0 0
508 1 1.04506 1 3.94458 12.1677 11.1129 0 0 0
509 1 1.04506 1 7.52777 22.3002 20.9127 0 0 0
510 1 1.04506 1 19.9437 15.9657 0.178182 0 0 0
511 1 1.04506 1 2.16979 19.7625 1.24979 0 0 0
512 1 1.04506 1 3.62715 3.24224 20.5321 0 0 0
513 1 1.04504 1 23.2429 12.8305 13.2246 0 0 0
514 1 1.04504 1 8.63246 1.89879 20.4512 0 0 0
515 1 1.04503 1 19.2482 1.48854 13.4719 0 0 0
516 1 1.04503 1 1.24204 17.4909 9.42238 0 0 0
517 1 1.04501 1 18.2707 18.6721 17.0812 0 0 0
518 1 1.04499 1 17.6056 22.0931 13.1812 0 0 0
519 1 1.04495 1 22.6266 17.5142 12.5893 0 0 0
520 1 1.04494 1 7.74492 1.28132 7.08727 0 0 0
521 1 1.04493 1 7.74198 11.1928 16.3375 0 0 0
522 1 1.04493 1 19.7542 6.09759 8.05153 0 0 0
523 1 1.04491 1 17.42 0.149296 11.1183 0 0 0
524 1 1.04491 1 6.07787 22.0107 6.64105 0 0 0
525 1 1.0449 1 4.77812 20.1299 6.06079 0 0 0
526 1 1.04489 1 3.88472 8.88368 7.92029 0 0 0
527 1 1.04488 1 15.3409 2.74577 19.5708 0 0 0
528 1 1.04488 1 0.456231 16.8343 10.5688 0 0 0
529 1 1.04487 1 20.9552 19.7707 15.8592 0 0 0
530 1 1.04485 1 0.303256 4.6925 10.8729 0 0 0
531 1 1.04483 1 3.60753 6.7558 8.48395 0 0 0
532 1 1.04482 1 1.35422 16.5505 3.0548 0 0 0
533 1 1.04481 1 22.9381 21.9997 19.9007 0 0 0
534 1 1.04478 1 5.04891 4.38278 5.49434 0 0 0
535 1 1.04478 1 16.1959 12.3907 21.0903 0 0 0
536 1 1.04478 1 2.43476 19.4074 8.87964 0 0 0
537 1 1.04478 1 17.0254 7.38641 16.0754 0 0 0
538 1 1.04476 1 0.303432 9.04381 13.2308 0 0 0
539 1 1.04476 1 2.78514 5.79698 8.08741 0 0 0
540 1 1.04474 1 9.34041 14.7833 12.4677 0 0 0
541 1 1.04474 1 22.556 1.36654 1.80871 0 0 0
542 1 1.04474 1 3.73668 8.141 9.22284 0 0 0
543 1 1.04473 1 22.0684 1.29644 7.98975 0 0 0
544 1 1.04473 1 15.4684 13.4547 4.01554 0 0 0
545 1 1.04471 1 18.7218 19.1572 16.0974 0 0 0
546 1 1.0447 1 17.0129 5.94812 20.7645 0 0 0
547 1 1.04469 1 5.60945 3.08799 8.60209 0 0 0
548 1 1.04468 1 16.7035 22.1321 15.0408 0 0 0
549 1 1.04467 1 14.8069 4.21009 21.4564 0 0 0
550 1 1.04465 1 3.03042 16.8559 8.04703 0 0 0
551 1 1.04465 1 4.94781 5.21677 10.65 0 0 0
552 1 1.04462 1 19.5118 2.45563 4.55007 0 0 0
553 1 1.04462 1 22.8727 3.47708 18.1465 0 0 0
554 1 1.04461 1 0.330582 15.1004 21.723 0 0 0
555 1 1.0446 1 1.72685 10.3628 5.11412 0 0 0
556 1 1.0446 1 3.5425 1.26026 10.8877 0 0 0
557 1 1.04458 1 19.7189 16.577 6.41717 0 0 0
558 1 1.04458 1 4.62379 20.8211 17.4753 0 0 0
559 1 1.04458 1 1.24673 2.65774 2.75777 0 0 0
560 1 1.04457 1 11.9174 11.4806 12.944 0 0 0
561 1 1.04456 1 17.826 22.8227 23.1093 0 0 0
562 1 1.04456 1 2.04326 4.93951 0.0839523 0 0 0
563 1 1.04455 1 11.7939 7.91043 15.2039 0 0 0
564 1 1.04453 1 5.9303 15.6223 14.973 0 0 0
565 1 1.04452 1 21.5539 22.4483 19.983 0 0 0
566 1 1.04451 1 16.6363 3.3309 9.69282 0 0 0
567 1 1.04449 1 17.4147 4.70028 21.8101 0 0 0
568 1 1.04449 1 3.94647 14.5407 7.06837 0 0 0
569 1 1.04448 1 6.34534 4.05521 15.7222 0 0 0
570 1 1.04448 1 22.0346 6.15066 21.0206 0 0 0
571 1 1.04446 1 6.78584 3.91995 22.3233 0 0 0
572 1 1.04446 1 4.49141 3.03831 4.48343 0 0 0
573 1 1.04444 1 15.0701 7.26919 19.1061 0 0 0
574 1 1.04443 1 14.9243 0.259395 2.12827 0 0 0
575 1 1.04443 1 20.9493 18.9729 1.72112 0 0 0
576 1 1.04441 1 2.51893 23.1452 18.0713 0 0 0
577 1 1.0444 1 11.4124 9.74908 15.3457 0 0 0
578 1 1.0444 1 12.2795 22.8409 14.9738 0 0 0
579 1 1.04439 1 22.7831 8.99098 6.49246 0 0 0
580 1 1.04439 1 4.92464 8.47484 2.14285 0 0 0
581 1 1.04437 1 2.29844 2.57652 9.17767 0 0 0
582 1 1.04436 1 10.7363 8.7287 10.0234 0 0 0
583 1 1.04431 1 13.063 14.7703 9.67304 0 0 0
584 1 1.04431 1 14.7462 4.22917 8.9246 0 0 0
585 1 1.0443 1 23.5372 22.8229 14.6448 0 0 0
586 1 1.04429 1 9.9519 3.68194 13.8343 0 0 0
587 1 1.04428 1 18.339 10.2013 0.228149 0 0 0
588 1 1.04426 1 13.6034 1.93668 16.6725 0 0 0
589 1 1.04425 1 3.34156 18.6123 17.9876 0 0 0
590 1 1.04425 1 20.3287 6.23764 4.19915 0 0 0
591 1 1.04424 1 19.7903 0.0781044 3.85699 0 0 0
592 1 1.04423 1 2.0727 20.9406 10.0974 0 0 0
593 1 1.04423 1 9.48637 20.629 0.196658 0 0 0
594 1 1.04422 1 22.9857 2.82376 19.4749 0 0 0
595 1 1.04421 1 8.14211 18.8856 11.9584 0 0 0
596 1 1.0442 1 15.5031 15.2703 23.5537 0 0 0
597 1 1.04416 1 21.1038 2.1915 20.051 0 0 0
598 1 1.04416 1 13.3752 19.4434 23.0194 0 0 0
599 1 1.04415 1 19.7 22.0874 22.0841 0 0 0
600 1 1.04413 1 19.398 8.07546 0.383924 0 0 0
601 1 1.04413 1 19.6139 17.7002 1.49495 0 0 0
602 1 1.04411 1 23.0715 12.5087 17.7883 0 0 0
603 1 1.04411 1 14.0634 16.0064 5.09679 0 0 0
604 1 1.0441 1 0.527885 4.11421 18.8416 0 0 0
605 1 1.04409 1 12.2853 5.63507 21.6513 0 0 0
606 1 1.04409 1 10.888 4.83981 5.13259 0 0 0
607 1 1.04408 1 18.3889 17.0075 20.4617 0 0 0
608 1 1.04407 1 7.56653 21.541 0.370304 0 0 0
609 1 1.04407 1 14.764 15.8246 6.56298 0 0 0
610 1 1.04406 1 13.6694 12.3323 7.48669 0 0 0
611 1 1.04405 1 5.61009 19.8347 21.2172 0 0 0
612 1 1.04403 1 11.6876 12.4747 19.6547 0 0 0
613 1 1.04402 1 5.46713 19.3495 6.92695 0 0 0
614 1 1.04401 1 3.37607 1.5872 20.4652 0 0 0
615 1 1.044 1 15.3043 13.042 15.3637 0 0 0
616 1 1.04399 1 15.2751 22.2895 22.3482 0 0 0
617 1 1.04399 1 12.9829 14.6982 14.9999 0 0 0
618 1 1.04398 1 22.4247 4.33772 4.28764 0 0 0
619 1 1.04396 1 18.3302 10.3492 15.0195 0 0 0
620 1 1.04395 1 12.3907 13.5991 16.2169 0 0 0
621 1 1.04394 1 10.9115 12.4988 10.9847 0 0 0
622 1 1.04393 1 21.9199 8.91716 22.0028 0 0 0
623 1 1.04393 1 15.9569 16.9806 13.1211 0 0 0
624 1 1.04392 1 3.62089 9.31969 2.51397 0 0 0
625 1 1.04392 1 10.3941 16.7449 15.8729 0 0 0
626 1 1.04391 1 11.5089 12.4432 21.3318 0 0 0
627 1 1.04391 1 1.83629 18.5787 14.0978 0 0 0
628 1 1.0439 1 20.691 18.3643 16.3447 0 0 0
629 1 1.0439 1 11.6798 21.7718 9.52997 0 0 0
630 1 1.04389 1 17.0336 15.4352 21.6534 0 0 0
631 1 1.04388 1 4.60976 1.44323 6.46189 0 0 0
632 1 1.04387 1 15.0507 23.2069 3.50829 0 0 0
633 1 1.04387 1 7.27256 15.2139 7.73475 0 0 0
634 1 1.04386 1 15.7975 0.277836 16.298 0 0 0
635 1 1.04386 1 4.06965 2.961 6.04783 0 0 0
636 1 1.04386 1 9.04235 6.15178 3.78952 0 0 0
637 1 1.04382 1 15.3269 8.65465 7.06471 0 0 0
638 1 1.04382 1 21.3441 18.2278 20.4995 0 0 0
639 1 1.0438 1 9.89618 18.2948 11.1359 0 0 0
640 1 1.04379 1 20.8346 2.43428 15.1822 0 0 0
641 1 1.04379 1 3.3439 6.58456 11.5478 0 0 0
642 1 1.04376 1 20.1436 3.2453 9.19093 0 0 0
643 1 1.04376 1 9.62243 2.90839 13.1588 0 0 0
644 1 1.04375 1 20.5186 9.09424 13.1804 0 0 0
645 1 1.04374 1 3.74101 20.1094 0.298752 0 0 0
646 1 1.04374 1 11.0694 8.53156 22.8545 0 0 0
647 1 1.04372 1 1.1197 13.2387 3.60086 0 0 0
648 1 1.04372 1 22.1271 23.3634 18.8412 0 0 0
649 1 1.04371 1 6.14749 2.45525 21.39 0 0 0
650 1 1.0437 1 18.5841 14.669 18.3722 0 0 0
651 1 1.04369 1 10.5895 5.02723 17.6017 0 0 0
652 1 1.04368 1 12.0744 21.9306 6.86754 0 0 0
653 1 1.04366 1 16.1885 21.3908 2.16273 0 0 0
654 1 1.04365 1 20.3348 10.0538 3.57373 0 0 0
655 1 1.04365 1 8.94976 16.0894 11.3137 0 0 0